 TITLE = "2-D FEM RESULTS"
 VARIABLES = X,Y,CNEW,VX,VY
ZONE I=   41,J=   28,F=FEPOINT
  0.000E+00  0.000E+00  0.100E+03  0.000E+00  0.000E+00
  0.000E+00  0.300E+03  0.100E+03  0.000E+00  0.000E+00
  0.000E+00  0.500E+03  0.100E+03  0.000E+00  0.000E+00
  0.000E+00  0.700E+03  0.100E+03  0.000E+00  0.000E+00
  0.000E+00  0.100E+04  0.100E+03  0.000E+00  0.000E+00
  0.500E+03  0.000E+00  0.582E+02  0.000E+00  0.000E+00
  0.500E+03  0.300E+03  0.580E+02  0.000E+00  0.000E+00
  0.500E+03  0.500E+03  0.615E+02  0.000E+00  0.000E+00
  0.500E+03  0.700E+03  0.580E+02  0.000E+00  0.000E+00
  0.500E+03  0.100E+04  0.582E+02  0.000E+00  0.000E+00
  0.100E+04  0.000E+00  0.280E+02  0.000E+00  0.000E+00
  0.100E+04  0.300E+03  0.193E+02  0.000E+00  0.000E+00
  0.100E+04  0.500E+03 -0.250E+01  0.000E+00  0.000E+00
  0.100E+04  0.700E+03  0.193E+02  0.000E+00  0.000E+00
  0.100E+04  0.100E+04  0.280E+02  0.000E+00  0.000E+00
  0.150E+04  0.000E+00  0.249E+02  0.000E+00  0.000E+00
  0.150E+04  0.300E+03  0.248E+02  0.000E+00  0.000E+00
  0.150E+04  0.500E+03  0.278E+02  0.000E+00  0.000E+00
  0.150E+04  0.700E+03  0.248E+02  0.000E+00  0.000E+00
  0.150E+04  0.100E+04  0.249E+02  0.000E+00  0.000E+00
  0.230E+04  0.000E+00  0.382E+02  0.000E+00  0.000E+00
  0.230E+04  0.300E+03  0.382E+02  0.000E+00  0.000E+00
  0.230E+04  0.500E+03  0.377E+02  0.000E+00  0.000E+00
  0.230E+04  0.700E+03  0.383E+02  0.000E+00  0.000E+00
  0.230E+04  0.100E+04  0.381E+02  0.000E+00  0.000E+00
  0.330E+04  0.000E+00  0.539E+02  0.000E+00  0.000E+00
  0.330E+04  0.300E+03  0.539E+02  0.000E+00  0.000E+00
  0.330E+04  0.500E+03  0.540E+02  0.000E+00  0.000E+00
  0.330E+04  0.700E+03  0.540E+02  0.000E+00  0.000E+00
  0.330E+04  0.100E+04  0.542E+02  0.000E+00  0.000E+00
  0.400E+04  0.000E+00  0.602E+02  0.000E+00  0.000E+00
  0.400E+04  0.300E+03  0.621E+02  0.000E+00  0.000E+00
  0.400E+04  0.500E+03  0.659E+02  0.000E+00  0.000E+00
  0.400E+04  0.700E+03  0.682E+02  0.000E+00  0.000E+00
  0.400E+04  0.100E+04  0.691E+02  0.000E+00  0.000E+00
  0.450E+04  0.500E+03  0.843E+02  0.000E+00  0.000E+00
  0.450E+04  0.700E+03  0.839E+02  0.000E+00  0.000E+00
  0.450E+04  0.100E+04  0.839E+02  0.000E+00  0.000E+00
  0.500E+04  0.500E+03  0.100E+03  0.000E+00  0.000E+00
  0.500E+04  0.700E+03  0.100E+03  0.000E+00  0.000E+00
  0.500E+04  0.100E+04  0.100E+03  0.000E+00  0.000E+00
         1         6         7         2
         2         7         8         3
         3         8         9         4
         4         9        10         5
         6        11        12         7
         7        12        13         8
         8        13        14         9
         9        14        15        10
        11        16        17        12
        12        17        18        13
        13        18        19        14
        14        19        20        15
        16        21        22        17
        17        22        23        18
        18        23        24        19
        19        24        25        20
        21        26        27        22
        22        27        28        23
        23        28        29        24
        24        29        30        25
        26        31        32        27
        27        32        33        28
        28        33        34        29
        29        34        35        30
        33        36        37        34
        34        37        38        35
        36        39        40        37
        37        40        41        38
